
#(C) 2018 by FIZ Karlsruhe - Leibniz Institute for Information Infrastructure.  All rights reserved.
data_411143-ICSD
_database_code_ICSD 411143
_audit_creation_date 2002-04-01
_chemical_name_systematic 'Dibismuth dioxide selenide'
_chemical_formula_structural 'Bi2 O2 Se'
_chemical_formula_sum 'Bi2 O2 Se1'
_chemical_name_structure_type Th2TeN2
_exptl_crystal_density_diffrn 9.6
_publ_section_title

;
Untersuchung der Phasenbeziehungen in den quaternaeren Systemen Bi2 O3 / Bi2
Ch'3 / Bi2 Ch''3 (Ch= S, Se, Te) II. Zum System Bi2 O3 / Bi2 Se3 / Bi2 Te3 -
die Kristallstruktur von Bi2 O2 (Tex Se1-x)
;
loop_
_citation_id
_citation_journal_full
_citation_year
_citation_journal_volume
_citation_page_first
_citation_page_last
_citation_journal_id_ASTM
primary 'Zeitschrift fuer Anorganische und Allgemeine Chemie (1950) (DE)' 2000
626 1999 2003 ZAACAB
loop_
_publ_author_name
'Schmidt, P.'
'Rademacher, O.'
'Oppermann, H.'
'Daebritz, S.'
_cell_length_a 3.88(4)
_cell_length_b 3.88(4)
_cell_length_c 12.16(3)
_cell_angle_alpha 90.
_cell_angle_beta 90.
_cell_angle_gamma 90.
_cell_volume 183.06
_cell_formula_units_Z 2
_symmetry_space_group_name_H-M 'I 4/m m m'
_symmetry_Int_Tables_number 139
_refine_ls_R_factor_all 0.029
loop_
_symmetry_equiv_pos_site_id
_symmetry_equiv_pos_as_xyz
1 'y, x, -z'
2 '-y, -x, -z'
3 '-y, x, -z'
4 'y, -x, -z'
5 '-x, y, -z'
6 'x, -y, -z'
7 'x, y, -z'
8 '-x, -y, -z'
9 '-y, -x, z'
10 'y, x, z'
11 'y, -x, z'
12 '-y, x, z'
13 'x, -y, z'
14 '-x, y, z'
15 '-x, -y, z'
16 'x, y, z'
17 'y+1/2, x+1/2, -z+1/2'
18 '-y+1/2, -x+1/2, -z+1/2'
19 '-y+1/2, x+1/2, -z+1/2'
20 'y+1/2, -x+1/2, -z+1/2'
21 '-x+1/2, y+1/2, -z+1/2'
22 'x+1/2, -y+1/2, -z+1/2'
23 'x+1/2, y+1/2, -z+1/2'
24 '-x+1/2, -y+1/2, -z+1/2'
25 '-y+1/2, -x+1/2, z+1/2'
26 'y+1/2, x+1/2, z+1/2'
27 'y+1/2, -x+1/2, z+1/2'
28 '-y+1/2, x+1/2, z+1/2'
29 'x+1/2, -y+1/2, z+1/2'
30 '-x+1/2, y+1/2, z+1/2'
31 '-x+1/2, -y+1/2, z+1/2'
32 'x+1/2, y+1/2, z+1/2'
loop_
_atom_type_symbol
_atom_type_oxidation_number
Bi3+ 3
Se2- -2
O2- -2
loop_
_atom_site_label
_atom_site_type_symbol
_atom_site_symmetry_multiplicity
_atom_site_Wyckoff_symbol
_atom_site_fract_x
_atom_site_fract_y
_atom_site_fract_z
_atom_site_B_iso_or_equiv
_atom_site_occupancy
_atom_site_attached_hydrogens
Bi1 Bi3+ 4 e 0 0 0.35340(4) . 1. 0
Se2 Se2- 2 a 0 0 0 . 1. 0
O1 O2- 4 d 0.5 0 0.25 . 1. 0
loop_
_atom_site_aniso_label
_atom_site_aniso_type_symbol
_atom_site_aniso_U_11
_atom_site_aniso_U_22
_atom_site_aniso_U_33
_atom_site_aniso_U_12
_atom_site_aniso_U_13
_atom_site_aniso_U_23
Bi1 Bi3+ 0.0162(3) 0.0162(3) 0.0083(3) 0 0 0
Se2 Se2- 0.0147(5) 0.0147(5) 0.016(1) 0 0 0
O1 O2- 0.012(2) 0.012(2) 0.009(3) 0 0 0
#End of TTdata_411143-ICSD